LAMMPS data file via write_data, version 28 Jun 2014, timestep = 30000035

84 atoms
15 atom types
85 bonds
22 bond types
146 angles
42 angle types
230 dihedrals
82 dihedral types
12 impropers
6 improper types

-2.0000000000000000e+01 2.0000000000000000e+01 xlo xhi
-2.0000000000000000e+01 2.0000000000000000e+01 ylo yhi
-2.0000000000000000e+01 2.0000000000000000e+01 zlo zhi

Masses

1 1.008
2 1.008
3 1.008
4 1.008
5 1.008
6 1.008
7 12.011
8 12.011
9 12.011
10 12.011
11 12.011
12 14.007
13 15.999
14 15.999
15 32.06

Pair Coeffs

1 0.046 0.400014 0.046 0.400014
2 0.03 2.42004 0.03 2.42004
3 0.022 2.35197 0.022 2.35197
4 0.028 2.38761 0.028 2.38761
5 0.034 2.38761 0.034 2.38761
6 0.024 2.38761 0.024 2.38761
7 0.11 3.56359 0.11 3.56359
8 0.07 3.55005 0.07 3.55005
9 0.032 3.56359 0.01 3.38542
10 0.056 3.58141 0.01 3.38542
11 0.078 3.63487 0.01 3.38542
12 0.2 3.29632 0.2 2.76179
13 0.12 3.02906 0.12 2.49452
14 0.1521 3.15378 0.1521 3.15378
15 0.45 3.56359 0.45 3.56359

Bond Coeffs 

1 250 1.49
2 250 1.49
3 250 1.49
4 370 1.345
5 620 1.23
6 305 1.375
7 230 1.49
8 340 1.08
9 334.3 1.411
10 222.5 1.538
11 330 1.08
12 320 1.43
13 222.5 1.53
14 309 1.111
15 330 1.08
16 320 1.43
17 198 1.818
18 322 1.111
19 320 1.43
20 240 1.816
21 440 0.997
22 545 0.96

Angle Coeffs 

1 52 108 0 0
2 50 109.5 0 0
3 50 107 0 0
4 50 109.5 0 0
5 50 107 0 0
6 33 109.5 30 2.163
7 50 120 0 0
8 50 120 0 0
9 50 120 0 0
10 34 123 0 0
11 40 120 35 2.4162
12 45.8 122.3 0 0
13 30 120 22 2.1525
14 45.2 120 0 0
15 51.8 107.5 0 0
16 49.3 107.5 0 0
17 65 108 0 0
18 80 116.5 0 0
19 80 121 0 0
20 58.35 113.5 11.16 2.561
21 26.5 110.1 22.53 2.179
22 35 117 0 0
23 80 116.5 0 0
24 80 121 0 0
25 35 111 0 0
26 70 113.5 0 0
27 26.5 110.1 22.53 2.179
28 58 114.5 0 0
29 35 117 0 0
30 34 95 0 0
31 80 116.5 0 0
32 80 121 0 0
33 35 117 0 0
34 35.5 109 5.4 1.802
35 46.1 111.3 0 0
36 35.5 108.4 5.4 1.802
37 51.5 109.5 0 0
38 46.1 111.3 0 0
39 48 108 0 0
40 36 115 0 0
41 48 108 0 0
42 80 122.5 0 0

Dihedral Coeffs 

1 1.28 1 180 1
2 0.94 2 180 0
3 1.57 3 180 0
4 0.35 1 180 1
5 0.42 2 180 0
6 1.91 3 180 0
7 0.2 3 0 1
8 0.2 1 180 1
9 0 1 0 1
10 0.2 1 180 1
11 0 1 0 1
12 1.8 1 0 1
13 0 1 0 1
14 0 1 0 1
15 0 3 0 1
16 3.1 2 180 0.5
17 3.1 2 180 1
18 4.2 2 180 1
19 3.1 2 180 1
20 1.07 1 0 1
21 0.24 2 180 0
22 0.17 3 180 0
23 0 6 0 1
24 0.99 2 180 1
25 0.2 3 0 1
26 0.52 1 180 1
27 0.62 2 180 0
28 1.58 3 0 0
29 1.6 1 0 1
30 2.5 2 180 0
31 1.6 1 0 1
32 2.5 2 180 0
33 1.6 1 0 1
34 2.5 2 180 0
35 2.5 2 180 1
36 0.19 3 0 1
37 0.14 1 180 1
38 0.54 2 0 0
39 0.69 3 0 0
40 1.6 1 0 1
41 2.5 2 180 0
42 1.6 1 0 1
43 2.5 2 180 0
44 2.5 2 180 1
45 1.6 1 0 1
46 2.5 2 180 0
47 2.5 2 180 1
48 4.2 2 180 1
49 0 1 0 1
50 1.4 1 0 1
51 0 1 0 1
52 0.2 3 0 1
53 0.88 1 180 1
54 0 2 180 0
55 1.9 3 0 0
56 0.24 1 180 1
57 0.37 3 0 0
58 2.5 2 180 1
59 0.28 3 0 1
60 2.5 2 180 1
61 2.5 2 180 1
62 0.28 3 0 1
63 2.5 2 180 1
64 0 1 0 1
65 0 1 0 1
66 0 3 0 1
67 0.2 3 0 1
68 0.2 3 0 1
69 0.19 3 0 1
70 0.01 3 0 1
71 0 3 0 1
72 0 3 180 1
73 0 1 0 1
74 0 1 0 1
75 0 1 0 1
76 0 1 0 1
77 2.4 2 180 1
78 4.2 2 180 1
79 0.6 1 0 1
80 0.6 1 0 1
81 0 1 0 1
82 0 1 0 1

Improper Coeffs 

1 120 0
2 120 0
3 120 0
4 20 0
5 20 0
6 20 0

Atoms 

1 1 11 -2.7000000000000002e-01 5.0995332640954318e+00 -8.2217843176307532e+00 -5.6621437236295458e-01 0 0 0
2 1 6 8.9999999999999997e-02 4.2281668596434203e+00 -8.9046459332999781e+00 -4.0905631575611889e-01 0 0 0
4 1 6 8.9999999999999997e-02 5.5232312115332265e+00 -8.5073979336464998e+00 -1.5571918702799534e+00 0 0 0
5 1 7 5.1000000000000001e-01 4.8333384519402358e+00 -6.7693670829732966e+00 -5.5050167842693376e-01 0 0 0
25 1 2 1.1500000000000000e-01 -8.5563771623199864e-02 -7.5247004816805541e-01 -1.1482915834943206e+00 0 0 0
23 1 2 1.1500000000000000e-01 4.6549391683139618e-01 -3.0276001535750248e+00 -1.4079415707469856e+00 0 0 0
13 1 5 8.9999999999999997e-02 2.2145641203373079e+00 -4.8349687813405593e+00 -1.7999085109290383e+00 0 0 0
22 1 8 -1.1500000000000000e-01 1.2482017321950694e+00 -2.3293294122972115e+00 -1.1586464511464747e+00 0 0 0
12 1 5 8.9999999999999997e-02 3.9126341746953082e+00 -4.0683778991876540e+00 -1.7109671868833576e+00 0 0 0
11 1 10 -1.7999999999999999e-01 2.9416794477390860e+00 -4.2310494284193316e+00 -1.2127779635106697e+00 0 0 0
14 1 8 0.0000000000000000e+00 2.5154900317849882e+00 -2.8113073227595540e+00 -8.8695773558509916e-01 0 0 0
24 1 8 -1.1500000000000000e-01 9.5495011204136426e-01 -9.6562803455033408e-01 -9.4451839165322959e-01 0 0 0
15 1 8 -1.1500000000000000e-01 3.4421675235721070e+00 -1.8610557445071596e+00 -4.7815013800390177e-01 0 0 0
17 1 8 -1.1500000000000000e-01 3.1626007241140175e+00 -5.3509360055970623e-01 -2.2976953803370764e-01 0 0 0
16 1 2 1.1500000000000000e-01 4.3798632441906324e+00 -2.2780245457560757e+00 -1.3293398727044983e-01 0 0 0
6 1 13 -5.1000000000000001e-01 5.7671155221185160e+00 -6.0230848195308404e+00 -8.6961664700699681e-01 0 0 0
7 1 12 -4.6999999999999997e-01 3.6142976946317642e+00 -6.4171082545927147e+00 -1.8814093378322724e-01 0 0 0
45 4 3 8.9999999999999997e-02 -3.3857869192297461e+00 3.4857070719234140e-01 -5.1637136983008036e-01 0 0 0
63 5 1 3.1000000000000000e-01 -3.6947116664806052e+00 3.1260174018860623e+00 -1.2697189652239553e+00 0 0 0
62 5 12 -4.6999999999999997e-01 -2.7180696158371362e+00 2.9381901889337447e+00 -1.2081495178036938e+00 0 0 0
78 5 13 -5.1000000000000001e-01 -4.2504017866588581e+00 4.6285568266352479e+00 -2.0445960249619879e+00 0 0 0
77 5 7 5.1000000000000001e-01 -3.0833257600010398e+00 4.9908504148004562e+00 -2.0595262087585700e+00 0 0 0
64 5 9 7.0000000000000007e-02 -1.9770234888513776e+00 4.0003634619512356e+00 -1.8792331552569970e+00 0 0 0
67 5 5 8.9999999999999997e-02 -1.9202744727638803e+00 3.2711778705250043e+00 -3.9978987390588943e+00 0 0 0
66 5 10 -1.7999999999999999e-01 -1.2290134032088336e+00 3.6802465074722845e+00 -3.2221399546014027e+00 0 0 0
65 5 3 8.9999999999999997e-02 -1.3342671552268446e+00 4.4876637685522605e+00 -1.1648142790261482e+00 0 0 0
60 4 7 5.1000000000000001e-01 -2.1913242656491199e+00 2.0435703381654320e+00 -3.9079938162072914e-01 0 0 0
79 5 12 -4.6999999999999997e-01 -2.6368293540205281e+00 6.2791017369523132e+00 -2.1857256041277862e+00 0 0 0
47 4 5 8.9999999999999997e-02 -4.9557663557901988e+00 2.2604648784298185e+00 -1.4700435044679394e-01 0 0 0
68 5 5 8.9999999999999997e-02 -9.1925039134004338e-01 4.6923400292316257e+00 -3.5428335453199247e+00 0 0 0
80 5 1 3.1000000000000000e-01 -1.7025665912127126e+00 6.5020161086699799e+00 -1.9394244924152555e+00 0 0 0
19 1 8 1.1000000000000000e-01 1.8418367731828027e+00 -8.2397986818396163e-02 -3.9005416960385880e-01 0 0 0
71 5 5 8.9999999999999997e-02 -3.3902223313894231e-01 1.7432894133212882e+00 -2.7088888775576048e+00 0 0 0
69 5 10 -1.4000000000000001e-01 -1.0428100531953165e-02 2.7605800349255580e+00 -3.0161625859106285e+00 0 0 0
70 5 5 8.9999999999999997e-02 4.5995029539374838e-01 3.0615767094839552e+00 -2.0551724360013028e+00 0 0 0
72 5 15 -8.9999999999999997e-02 1.2985815168979304e+00 2.8628557891228601e+00 -4.2284536606319207e+00 0 0 0
73 5 11 -2.2000000000000000e-01 2.4611303064744701e+00 1.6830538931762933e+00 -3.4538683567950090e+00 0 0 0
74 5 6 8.9999999999999997e-02 3.3182739009488031e+00 1.4245271016404151e+00 -4.1141776081588235e+00 0 0 0
76 5 6 8.9999999999999997e-02 1.9157865704101875e+00 7.4833916782571264e-01 -3.2033702398549755e+00 0 0 0
75 5 6 8.9999999999999997e-02 3.0350486391623228e+00 1.9677320076990812e+00 -2.5523226129063143e+00 0 0 0
21 1 1 4.2999999999999999e-01 5.4083513903634883e-01 1.4548173228866652e+00 1.6814714586984462e-02 0 0 0
20 1 14 -5.4000000000000004e-01 1.4696783020959350e+00 1.2926079049588735e+00 -1.8695259722202956e-01 0 0 0
82 5 6 8.9999999999999997e-02 -3.7516078159144888e+00 8.0343427913899070e+00 -1.6728913374157748e+00 0 0 0
83 5 6 8.9999999999999997e-02 -2.9390994413431013e+00 8.1379727525220371e+00 -3.1759514439632190e+00 0 0 0
81 5 11 -1.1000000000000000e-01 -3.5153366123295640e+00 7.4150056405533507e+00 -2.5643617878452170e+00 0 0 0
84 5 6 8.9999999999999997e-02 -4.4555428146835352e+00 7.1594668258743743e+00 -3.0917880698334033e+00 0 0 0
3 1 6 8.9999999999999997e-02 5.9115765336328137e+00 -8.4037824329618402e+00 1.5984731684000930e-01 0 0 0
8 1 1 3.1000000000000000e-01 2.9602052855107104e+00 -7.0562120141731421e+00 1.9603123615830698e-01 0 0 0
41 3 13 -5.1000000000000001e-01 -2.1933449571737182e+00 -1.5542510060761021e+00 5.0663747382320656e-01 0 0 0
40 3 7 5.1000000000000001e-01 -1.9997911346261124e+00 -7.2164812023886760e-01 1.4084343397335284e+00 0 0 0
36 3 1 3.1000000000000000e-01 -1.1826105209956075e+00 -2.7761848889962226e+00 1.5649372237863528e+00 0 0 0
35 3 12 -4.6999999999999997e-01 -7.5482059843313121e-01 -2.4586661397424341e+00 2.4133394373779686e+00 0 0 0
39 3 4 8.9999999999999997e-02 -1.9994991775247046e+00 -1.2464151195206692e+00 3.4649130108235422e+00 0 0 0
37 3 10 -2.0000000000000000e-02 -1.2559592669117516e+00 -1.1546999490398340e+00 2.6825948639063015e+00 0 0 0
32 2 4 8.9999999999999997e-02 -5.1151303849931207e-01 -4.7649091319427344e+00 1.9819957372222738e+00 0 0 0
38 3 4 8.9999999999999997e-02 -4.6823298420794546e-01 -4.5477293855872414e-01 2.8873482491028346e+00 0 0 0
33 2 7 5.1000000000000001e-01 1.4967058820182474e-01 -3.1032403744670343e+00 3.0565772354277687e+00 0 0 0
9 1 9 7.0000000000000007e-02 3.2297844407323866e+00 -5.0284637517546944e+00 7.3155293883478648e-02 0 0 0
27 1 13 -5.1000000000000001e-01 1.5981876943957685e+00 -6.4204294887587761e+00 1.0505767004002642e+00 0 0 0
31 2 4 8.9999999999999997e-02 7.0398252767713521e-01 -5.2054920800033511e+00 3.2017843488685123e+00 0 0 0
30 2 10 -2.0000000000000000e-02 3.7320126608722315e-01 -4.4484909803508108e+00 2.5037255891300143e+00 0 0 0
34 2 13 -5.1000000000000001e-01 8.2645556812050514e-01 -2.7118662624367178e+00 3.9797866530130142e+00 0 0 0
26 1 7 5.1000000000000001e-01 2.0175217873408773e+00 -5.3181061735344635e+00 9.0153190247576465e-01 0 0 0
10 1 3 8.9999999999999997e-02 3.9789048962930451e+00 -4.4925896240102485e+00 6.4299356402253782e-01 0 0 0
29 2 1 3.1000000000000000e-01 1.6421338148255649e+00 -3.2820337137032372e+00 1.5147530623585801e+00 0 0 0
28 2 12 -4.6999999999999997e-01 1.3753137202173771e+00 -4.2490586016231866e+00 1.5601466803054493e+00 0 0 0
18 1 2 1.1500000000000000e-01 3.8258239477979239e+00 8.7691253176109096e-02 3.5591269039184281e-01 0 0 0
44 4 9 7.0000000000000007e-02 -3.1324791127660312e+00 1.0960018536083174e+00 2.3090976997978011e-01 0 0 0
61 4 13 -5.1000000000000001e-01 -9.7401316540286298e-01 1.8885863551134083e+00 -1.4546997407133069e-01 0 0 0
59 4 2 1.1500000000000000e-01 -4.1459328940853011e+00 2.7277970451159881e+00 5.1893714099110664e+00 0 0 0
42 4 12 -4.6999999999999997e-01 -2.4151009693712218e+00 5.0497093043849706e-01 1.3758742155188128e+00 0 0 0
48 4 5 8.9999999999999997e-02 -5.0639618042849790e+00 9.0015627497301443e-01 9.6172970398425106e-01 0 0 0
57 4 2 1.1500000000000000e-01 -4.3500587839642915e+00 1.2402046143215033e+00 3.3889564825499914e+00 0 0 0
46 4 10 -1.7999999999999999e-01 -4.4274105935142005e+00 1.7676881811558616e+00 6.9766194646396595e-01 0 0 0
51 4 2 1.1500000000000000e-01 -4.1243140757729124e+00 4.5795239961693737e+00 6.3770091900463832e-01 0 0 0
53 4 2 1.1500000000000000e-01 -3.8166981093156700e+00 6.0525687743254082e+00 2.6309399152795137e+00 0 0 0
50 4 8 -1.1500000000000000e-01 -4.0605293012252499e+00 4.1541300517914905e+00 1.6234958818940974e+00 0 0 0
55 4 2 1.1500000000000000e-01 -3.6825480367641465e+00 5.1025971181472540e+00 4.9124556436041633e+00 0 0 0
52 4 8 -1.1500000000000000e-01 -3.9282963280546666e+00 4.9774498676924193e+00 2.7313029954295240e+00 0 0 0
58 4 8 -1.1500000000000000e-01 -4.0680155026048253e+00 3.1438006355339088e+00 4.1982062012606978e+00 0 0 0
54 4 8 -1.1500000000000000e-01 -3.8321643424668994e+00 4.4679432333409466e+00 4.0450970940529976e+00 0 0 0
49 4 8 0.0000000000000000e+00 -4.2785309882371738e+00 2.7865618822001115e+00 1.8114106408599469e+00 0 0 0
56 4 8 -1.1500000000000000e-01 -4.2834211659799033e+00 2.2815486873262634e+00 3.1324368254879453e+00 0 0 0
43 4 1 3.1000000000000000e-01 -2.2942560070197633e+00 1.1070113002826849e+00 2.1614337682593576e+00 0 0 0

Velocities

1 -6.7436299858739937e-03 -9.1891129470242285e-04 7.6068077463820397e-03
2 4.1596296102819064e-03 -1.5557088123257680e-02 -9.2047006389271591e-03
4 -1.9360477241448019e-02 5.7436676811128441e-03 3.2765532591627661e-03
5 2.5470455004159183e-03 1.8069365863607827e-03 2.4001201638185329e-03
25 5.4157334645444461e-04 1.0018832290794002e-02 7.6098552939012831e-03
23 -8.2325304787895879e-03 -1.0850837498524583e-02 1.2271530560901790e-02
13 -7.1567410152950772e-03 3.1452367799248366e-03 7.5451218390540234e-03
22 -2.8522940913575279e-03 -2.3645780113311790e-03 -7.5188308313773782e-03
12 4.4198656510144423e-03 3.0957536285452295e-03 7.9561571858055395e-03
11 3.1698411788015288e-03 9.2113609646725185e-04 -2.4956014913504596e-04
14 -4.6762611213102753e-03 3.7717759578459577e-03 6.2292108108585875e-03
24 6.7484779328677059e-04 -8.0806428521346535e-03 -2.3479302642583711e-03
15 -1.1360024146928667e-02 4.8548167186936303e-03 -2.2496157964846260e-03
17 -1.8972962880646716e-03 5.1131988401533575e-05 -6.8987853770190437e-03
16 -2.1071123484369753e-02 -1.7238723253278229e-02 1.4611757737067342e-02
6 6.2437902613434538e-03 -3.0934633453107074e-03 -4.2058575810582305e-03
7 6.3115381327609457e-03 5.4966582565714739e-03 -2.1208585978450341e-03
45 -7.9209704152788836e-03 -5.6978568226921985e-03 -3.5794520209810974e-03
63 4.5881114426746059e-03 6.0207657766028575e-03 2.1893985168116772e-02
62 2.0016945029695463e-03 1.0648135895299879e-03 2.3309259385780067e-04
78 -1.7147501487234827e-03 -5.2136302018674649e-03 1.3324375721760564e-03
77 -2.2281730856076815e-03 5.8790688243926404e-04 2.8181580195207412e-03
64 6.2755543753180839e-03 2.0101640114411285e-03 2.2235709760469497e-03
67 -1.1583820571761688e-02 3.3275565920540165e-02 -9.9255514957488945e-03
66 7.7103868255606134e-03 1.6196712412919301e-03 -7.0766733858842164e-03
65 1.6553799015785894e-02 1.1650946286293843e-02 -1.4420389641594960e-02
60 -1.3778856169232930e-03 -3.5981205364294866e-03 1.0366607619142093e-02
79 2.4156350735318661e-03 -1.3833458343009307e-03 -3.0184199866953127e-03
47 3.8259657520072856e-03 3.2848027716962233e-03 7.8708667224320784e-03
68 -2.3661421627325593e-02 1.9410583943524389e-02 9.0621716660873302e-03
80 -1.5226776532243146e-02 2.7517804919814263e-02 2.3011934566476891e-02
19 3.4599754349439681e-03 -5.5996490713582257e-03 -4.5654112720037712e-03
71 4.2398869932232346e-02 -1.2890705217143273e-02 -3.8756210214559838e-03
69 -4.9434872543054290e-03 2.3802795812665456e-03 -6.4982532287286210e-03
70 -4.9915881377778255e-05 -6.4893202647420822e-03 -2.5393180965786162e-03
72 1.1227718801476885e-03 -2.7677749761048968e-03 1.3864617445657162e-03
73 -1.4494036992638885e-03 2.1779988109944841e-05 -5.2122936304616722e-03
74 -8.9905436064122279e-03 -6.2507017518858860e-03 -1.6337562370035492e-02
76 -1.3236515656919670e-02 7.1435132328203661e-03 -2.0996369894206453e-02
75 -5.0587977753656210e-03 -1.2093861962921715e-02 -5.9530511992422000e-03
21 1.3061307289715140e-02 3.4441079344893329e-02 1.6251764934293769e-02
20 1.4072940703547161e-03 1.9351402172285391e-03 -2.9601623748024724e-04
82 -2.5382437159601881e-02 1.8667337560835124e-03 -6.6780262598239446e-03
83 -2.0485262627279930e-02 1.2567261449648506e-02 -1.8226629980055725e-02
81 -3.8701295957021734e-04 3.8044244636579795e-03 -3.8982857835334213e-03
84 -4.1155096217236755e-04 -9.5602411894893397e-03 -4.7900033415662251e-03
3 6.1871820748883397e-03 1.3592056017829125e-02 -7.8373664318005468e-03
8 1.5698014074977330e-02 1.2154172315514031e-02 2.3490429385724983e-02
41 -1.1580752169264019e-03 -4.5268428717622376e-03 3.2409087722303849e-03
40 4.7155713823894317e-03 -8.3234246889315685e-04 4.3825288459840720e-03
36 -1.8783392064290423e-02 -9.2397632571552257e-03 1.0376588186529447e-02
35 -2.7490414784494023e-03 -2.5702471241036838e-03 4.4532189662150629e-03
39 5.4256353633346114e-03 -6.1497547899615175e-03 1.1645108933026638e-02
37 1.7082358197032213e-03 2.8107722579142941e-03 3.5899205685374445e-03
32 -1.7196364378340616e-03 -2.6259531219130442e-02 3.3969494611317229e-02
38 -1.1862911020478831e-02 1.1213655184912028e-02 2.1528840029692985e-02
33 -3.6414221313217721e-03 1.1561411763530076e-03 -4.2719394393938117e-04
9 2.1887138711930198e-03 -7.8640370677656082e-03 3.3293126851911691e-03
27 -6.2657190448582351e-04 3.7252009791678936e-03 -8.1262557401424226e-04
31 -8.5785350062133336e-03 -1.4701850000596810e-02 -3.8537012797284324e-03
30 7.0715162235760812e-03 6.0228312715469574e-04 3.7753391080830416e-03
34 -3.1628045849251638e-03 -4.6936100303758312e-03 3.9602995054351525e-03
26 5.6128234801013201e-03 -4.5187231339698982e-03 -5.8124708981063655e-03
10 6.4855988522703068e-03 -2.2503089117391355e-03 -1.0446199984106991e-03
29 1.4119412377638575e-02 -3.6241484483551540e-03 -3.0107735253759175e-04
28 -6.2741123609033871e-05 1.6562191885139833e-03 1.7289689837458704e-04
18 -2.4819614859338582e-03 7.9432531921723275e-03 -6.3936196153589519e-03
44 -1.6710059342525943e-03 2.0662392876254561e-03 -7.4805189631868951e-03
61 -2.3779031470097490e-04 7.4457348863679598e-03 -4.0339770663757159e-03
59 -4.2791377171227281e-03 2.4932641575508882e-02 8.6873100967908602e-03
42 -4.9377053566243573e-03 2.5599618485093742e-03 -2.5690361178480722e-04
48 -4.9944102965458759e-03 1.4396836364491976e-02 2.5253907720314262e-02
57 1.6017247384836612e-02 1.8301259134120493e-05 1.2541762510127024e-02
46 2.1415010087925423e-03 5.3826032765046149e-04 3.7546617853170946e-04
51 -2.9206952874006771e-03 1.3258055395595584e-02 7.0941289352958650e-03
53 -2.2587189445888835e-03 8.2213416314485376e-03 1.5291118441944666e-02
50 3.1051027083121348e-03 -8.2948248789437517e-04 -1.4937110537437850e-03
55 1.1898248752164422e-03 -8.3868417990439273e-03 1.3857791762794723e-02
52 -8.8362350580829044e-03 4.3649678834856978e-03 -5.4320896707344309e-03
58 -3.2251888083633662e-03 8.9713909437051491e-04 -4.1332678687420266e-03
54 1.3953700133142763e-03 -4.3812210365735665e-03 8.7058899677623820e-03
49 3.1054511959513155e-03 1.5534137058528347e-03 -1.7632257957625585e-03
56 7.8760043720684967e-04 -5.8407146533406579e-04 -3.9038499219358426e-05
43 -2.5269971422744821e-03 -9.5749876252288289e-03 3.2287458342005861e-03

Bonds

1 18 1 2
2 18 1 3
3 18 1 4
4 3 5 1
5 4 5 7
6 6 22 14
7 8 22 23
8 10 11 9
9 14 11 12
10 14 11 13
11 7 14 11
12 8 24 25
13 6 24 22
14 8 15 16
15 6 15 14
16 6 17 15
17 8 17 18
18 6 17 19
19 5 6 5
20 21 7 8
21 12 7 9
22 21 62 63
23 12 62 64
24 5 78 77
25 1 77 64
26 4 77 79
27 11 64 65
28 10 66 64
29 14 66 67
30 14 66 68
31 1 60 44
32 4 60 62
33 21 79 80
34 19 79 81
35 6 19 24
36 13 69 66
37 14 69 70
38 14 69 71
39 17 72 69
40 20 73 72
41 18 73 74
42 18 73 75
43 18 73 76
44 9 20 19
45 22 20 21
46 18 81 82
47 18 81 83
48 18 81 84
49 5 41 40
50 2 40 37
51 4 40 42
52 21 35 36
53 16 35 37
54 15 37 38
55 15 37 39
56 2 33 30
57 4 33 35
58 11 9 10
59 5 27 26
60 15 30 31
61 15 30 32
62 5 34 33
63 1 26 9
64 4 26 28
65 21 28 29
66 16 28 30
67 11 44 45
68 5 61 60
69 21 42 43
70 12 42 44
71 10 46 44
72 14 46 47
73 14 46 48
74 8 50 51
75 6 50 49
76 6 52 50
77 8 52 53
78 6 58 56
79 8 58 59
80 6 54 58
81 6 54 52
82 8 54 55
83 7 49 46
84 6 56 49
85 8 56 57

Angles

1 36 2 1 3
2 36 2 1 4
3 6 2 1 5
4 36 3 1 4
5 6 3 1 5
6 6 4 1 5
7 32 1 5 6
8 31 1 5 7
9 42 6 5 7
10 13 14 22 23
11 11 14 22 24
12 13 23 22 24
13 21 9 11 12
14 21 9 11 13
15 15 9 11 14
16 34 12 11 13
17 16 12 11 14
18 16 13 11 14
19 12 11 14 15
20 12 11 14 22
21 11 15 14 22
22 11 19 24 22
23 13 19 24 25
24 13 22 24 25
25 13 14 15 16
26 11 14 15 17
27 13 16 15 17
28 13 15 17 18
29 11 15 17 19
30 13 18 17 19
31 10 5 7 8
32 7 5 7 9
33 22 8 7 9
34 10 60 62 63
35 7 60 62 64
36 22 63 62 64
37 19 64 77 78
38 18 64 77 79
39 42 78 77 79
40 39 62 64 65
41 26 62 64 66
42 3 62 64 77
43 25 65 64 66
44 2 65 64 77
45 1 66 64 77
46 21 64 66 67
47 21 64 66 68
48 20 64 66 69
49 34 67 66 68
50 27 67 66 69
51 27 68 66 69
52 19 44 60 61
53 18 44 60 62
54 42 61 60 62
55 10 77 79 80
56 9 77 79 81
57 33 80 79 81
58 14 17 19 20
59 11 17 19 24
60 14 20 19 24
61 27 66 69 70
62 27 66 69 71
63 28 66 69 72
64 34 70 69 71
65 35 70 69 72
66 35 71 69 72
67 30 69 72 73
68 38 72 73 74
69 38 72 73 75
70 38 72 73 76
71 36 74 73 75
72 36 74 73 76
73 36 75 73 76
74 17 19 20 21
75 37 79 81 82
76 37 79 81 83
77 37 79 81 84
78 36 82 81 83
79 36 82 81 84
80 36 83 81 84
81 24 37 40 41
82 23 37 40 42
83 42 41 40 42
84 10 33 35 36
85 8 33 35 37
86 29 36 35 37
87 41 35 37 38
88 41 35 37 39
89 5 35 37 40
90 40 38 37 39
91 4 38 37 40
92 4 39 37 40
93 24 30 33 34
94 23 30 33 35
95 42 34 33 35
96 39 7 9 10
97 26 7 9 11
98 3 7 9 26
99 25 10 9 11
100 2 10 9 26
101 1 11 9 26
102 41 28 30 31
103 41 28 30 32
104 5 28 30 33
105 40 31 30 32
106 4 31 30 33
107 4 32 30 33
108 19 9 26 27
109 18 9 26 28
110 42 27 26 28
111 10 26 28 29
112 8 26 28 30
113 29 29 28 30
114 39 42 44 45
115 26 42 44 46
116 3 42 44 60
117 25 45 44 46
118 2 45 44 60
119 1 46 44 60
120 10 40 42 43
121 7 40 42 44
122 22 43 42 44
123 21 44 46 47
124 21 44 46 48
125 15 44 46 49
126 34 47 46 48
127 16 47 46 49
128 16 48 46 49
129 13 49 50 51
130 11 49 50 52
131 13 51 50 52
132 13 50 52 53
133 11 50 52 54
134 13 53 52 54
135 11 54 58 56
136 13 54 58 59
137 13 56 58 59
138 13 52 54 55
139 11 52 54 58
140 13 55 54 58
141 12 46 49 50
142 12 46 49 56
143 11 50 49 56
144 13 49 56 57
145 11 49 56 58
146 13 57 56 58

Dihedrals

1 72 2 1 5 6
2 71 2 1 5 7
3 72 3 1 5 6
4 71 3 1 5 7
5 72 4 1 5 6
6 71 4 1 5 7
7 60 1 5 7 8
8 42 1 5 7 9
9 43 1 5 7 9
10 63 6 5 7 8
11 44 6 5 7 9
12 16 14 22 24 19
13 18 14 22 24 25
14 77 23 22 24 25
15 20 9 11 14 15
16 21 9 11 14 15
17 22 9 11 14 15
18 20 9 11 14 22
19 21 9 11 14 22
20 22 9 11 14 22
21 7 12 11 9 26
22 23 12 11 14 15
23 23 12 11 14 22
24 7 13 11 9 26
25 23 13 11 14 15
26 23 13 11 14 22
27 1 14 11 9 26
28 2 14 11 9 26
29 3 14 11 9 26
30 48 11 14 15 16
31 17 11 14 15 17
32 48 11 14 22 23
33 17 11 14 22 24
34 18 15 14 22 23
35 16 15 14 22 24
36 18 19 24 22 23
37 18 14 15 17 18
38 16 14 15 17 19
39 18 16 15 14 22
40 77 16 15 17 18
41 18 16 15 17 19
42 16 17 15 14 22
43 19 15 17 19 20
44 16 15 17 19 24
45 78 18 17 19 20
46 18 18 17 19 24
47 13 5 7 9 10
48 12 5 7 9 11
49 8 5 7 9 26
50 64 8 7 9 10
51 51 8 7 9 11
52 9 8 7 9 26
53 13 60 62 64 65
54 12 60 62 64 66
55 8 60 62 64 77
56 64 63 62 64 65
57 51 63 62 64 66
58 9 63 62 64 77
59 35 64 77 79 80
60 33 64 77 79 81
61 34 64 77 79 81
62 63 78 77 79 80
63 61 78 77 79 81
64 68 62 64 66 67
65 68 62 64 66 68
66 53 62 64 66 69
67 55 62 64 66 69
68 81 62 64 77 78
69 79 62 64 77 79
70 67 65 64 66 67
71 67 65 64 66 68
72 52 65 64 66 69
73 74 65 64 77 78
74 73 65 64 77 79
75 50 66 64 77 78
76 49 66 64 77 79
77 36 64 66 69 70
78 36 64 66 69 71
79 37 64 66 69 72
80 38 64 66 69 72
81 39 64 66 69 72
82 7 67 66 64 77
83 69 67 66 69 70
84 69 67 66 69 71
85 70 67 66 69 72
86 7 68 66 64 77
87 69 68 66 69 70
88 69 68 66 69 71
89 70 68 66 69 72
90 4 69 66 64 77
91 5 69 66 64 77
92 6 69 66 64 77
93 35 44 60 62 63
94 29 44 60 62 64
95 30 44 60 62 64
96 63 61 60 62 63
97 44 61 60 62 64
98 15 77 79 81 82
99 15 77 79 81 83
100 15 77 79 81 84
101 66 80 79 81 82
102 66 80 79 81 83
103 66 80 79 81 84
104 24 17 19 20 21
105 16 17 19 24 22
106 18 17 19 24 25
107 19 20 19 24 22
108 78 20 19 24 25
109 56 66 69 72 73
110 57 66 69 72 73
111 62 70 69 72 73
112 62 71 69 72 73
113 59 69 72 73 74
114 59 69 72 73 75
115 59 69 72 73 76
116 24 21 20 19 24
117 47 37 40 42 43
118 40 37 40 42 44
119 41 37 40 42 44
120 63 41 40 42 43
121 44 41 40 42 44
122 14 33 35 37 38
123 14 33 35 37 39
124 10 33 35 37 40
125 65 36 35 37 38
126 65 36 35 37 39
127 11 36 35 37 40
128 82 35 37 40 41
129 80 35 37 40 42
130 76 38 37 40 41
131 75 38 37 40 42
132 76 39 37 40 41
133 75 39 37 40 42
134 82 30 37 44 64
135 47 30 33 35 36
136 45 30 33 35 37
137 46 30 33 35 37
138 63 34 33 35 36
139 58 34 33 35 37
140 68 7 9 11 12
141 68 7 9 11 13
142 26 7 9 11 14
143 27 7 9 11 14
144 28 7 9 11 14
145 81 7 9 26 27
146 79 7 9 26 28
147 67 10 9 11 12
148 67 10 9 11 13
149 25 10 9 11 14
150 74 10 9 26 27
151 73 10 9 26 28
152 50 11 9 26 27
153 49 11 9 26 28
154 82 28 30 33 34
155 80 28 30 33 35
156 76 31 30 33 34
157 75 31 30 33 35
158 76 32 30 33 34
159 75 32 30 33 35
160 82 9 30 37 44
161 35 9 26 28 29
162 31 9 26 28 30
163 32 9 26 28 30
164 63 27 26 28 29
165 58 27 26 28 30
166 14 26 28 30 31
167 14 26 28 30 32
168 10 26 28 30 33
169 65 29 28 30 31
170 65 29 28 30 32
171 11 29 28 30 33
172 68 42 44 46 47
173 68 42 44 46 48
174 26 42 44 46 49
175 27 42 44 46 49
176 28 42 44 46 49
177 81 42 44 60 61
178 79 42 44 60 62
179 67 45 44 46 47
180 67 45 44 46 48
181 25 45 44 46 49
182 74 45 44 60 61
183 73 45 44 60 62
184 50 46 44 60 61
185 49 46 44 60 62
186 13 40 42 44 45
187 12 40 42 44 46
188 8 40 42 44 60
189 64 43 42 44 45
190 51 43 42 44 46
191 9 43 42 44 60
192 20 44 46 49 50
193 21 44 46 49 50
194 22 44 46 49 50
195 20 44 46 49 56
196 21 44 46 49 56
197 22 44 46 49 56
198 7 47 46 44 60
199 23 47 46 49 50
200 23 47 46 49 56
201 7 48 46 44 60
202 23 48 46 49 50
203 23 48 46 49 56
204 1 49 46 44 60
205 2 49 46 44 60
206 3 49 46 44 60
207 18 49 50 52 53
208 16 49 50 52 54
209 18 51 50 49 56
210 77 51 50 52 53
211 18 51 50 52 54
212 16 52 50 49 56
213 18 50 52 54 55
214 16 50 52 54 58
215 77 53 52 54 55
216 18 53 52 54 58
217 18 54 58 56 57
218 16 52 54 58 56
219 18 52 54 58 59
220 18 55 54 58 56
221 77 55 54 58 59
222 48 46 49 50 51
223 17 46 49 50 52
224 48 46 49 56 57
225 17 46 49 56 58
226 18 50 49 56 57
227 16 50 49 56 58
228 16 49 56 58 54
229 18 49 56 58 59
230 77 57 56 58 59

Impropers

1 3 5 1 7 6
2 4 7 5 9 8
3 6 79 77 81 80
4 1 77 64 79 78
5 4 62 60 64 63
6 4 42 40 44 43
7 2 40 37 42 41
8 5 35 33 37 36
9 1 26 9 28 27
10 2 33 30 35 34
11 5 28 26 30 29
12 1 60 44 62 61
