Created by charmm2lammps v1.8.1 on Tue Nov 11 12:22:28 CST 2014

        2017  atoms
        2028  bonds
        3694  angles
        6278  dihedrals
         338  impropers

          31  atom types
          56  bond types
         131  angle types
         311  dihedral types
          15  improper types

    -1000.0    1000.0 xlo xhi
    -1000.0    1000.0 ylo yhi
    -1000.0    1000.0 zlo zhi

Masses

       1      1.008
       2      1.008
       3      1.008
       4      1.008
       5      1.008
       6      1.008
       7      1.008
       8      1.008
       9      1.008
      10      1.008
      11     12.011
      12     12.011
      13     12.011
      14     12.011
      15     12.011
      16     12.011
      17     12.011
      18     12.011
      19     12.011
      20     12.011
      21     12.011
      22     12.011
      23     14.007
      24     14.007
      25     14.007
      26     14.007
      27     14.007
      28     15.999
      29     15.999
      30     15.999
      31      32.06

Pair Coeffs

       1      0.046  0.4000135      0.046  0.4000135
       2      0.046  0.4000135      0.046  0.4000135
       3       0.03   2.420037       0.03   2.420037
       4      0.022   2.351973      0.022   2.351973
       5      0.028   2.387609      0.028   2.387609
       6      0.046   1.603618      0.046   1.603618
       7      0.046   1.247258      0.046   1.247258
       8      0.045   2.387609      0.045   2.387609
       9      0.034   2.387609      0.034   2.387609
      10      0.024   2.387609      0.024   2.387609
      11       0.11   3.563595       0.11   3.563595
      12       0.07   3.550053       0.07   3.550053
      13      0.032   3.563595       0.01   3.385415
      14      0.056   3.581413       0.01   3.385415
      15      0.056   3.581413       0.01   3.385415
      16      0.078   3.634867       0.01   3.385415
      17       0.05   3.207235       0.05   3.207235
      18       0.05   3.207235       0.05   3.207235
      19       0.02   4.053589       0.01   3.385415
      20      0.055   3.875409       0.01   3.385415
      21      0.055   3.875409       0.01   3.385415
      22       0.07   3.563595       0.07   3.563595
      23        0.2   3.296325     0.0001   3.296325
      24        0.2   3.296325        0.2   3.296325
      25        0.2   3.296325        0.2   2.761786
      26        0.2   3.296325        0.2   3.296325
      27        0.2   3.296325        0.2   3.296325
      28       0.12   3.029056       0.12   2.494516
      29       0.12   3.029056       0.12   3.029056
      30     0.1521   3.153781     0.1521   3.153781
      31       0.45   3.563595       0.45   3.563595

Atoms

       1       1    27      -0.3           0           0           0
       2       1     2      0.33    -0.34716    -0.98035           0
       3       1     2      0.33    -0.34716     0.49017    -0.84901
       4       1     2      0.33    -0.34716     0.49017     0.84901
       5       1    13      0.21        1.48           0           0
       6       1     4       0.1     1.79071    -0.49674     0.90725
       7       1    14     -0.18     2.03808     -0.7089    -1.24557
       8       1     9      0.09     1.68231     -1.7609    -1.27769
       9       1     9      0.09     1.62176    -0.24716    -2.16634
      10       1    14     -0.14     3.56693    -0.73826    -1.29717
      11       1     9      0.09       3.969     0.29743    -1.29484
      12       1     9      0.09      3.9694     -1.2547    -0.39961
      13       1    31     -0.09     4.25608    -1.57039    -2.75928
      14       1    16     -0.22     5.99015    -1.30363    -2.29057
      15       1    10      0.09      6.6829    -1.72412    -3.05057
      16       1    10      0.09     6.21936     -0.2211    -2.19104
      17       1    10      0.09     6.22475    -1.78856     -1.3189
      18       1    11      0.51     1.98961     1.40014           0
      19       1    28     -0.51     1.21555     2.35603           0
      20       2    25     -0.47     3.32596      1.5524           0
      21       2     1      0.31     3.96013     0.78309           0
      22       2    13      0.07     3.89618      2.8638           0
      23       2     4      0.09     3.58922     3.35436    -0.91188
      24       2    15     -0.28     3.51252     3.69483     1.23598
      25       2     9      0.09     2.41047     3.82893     1.27883
      26       2     9      0.09     3.83411     3.17234     2.16221
      27       2    22      0.62     4.17953     5.05727     1.11221
      28       2    29     -0.76     3.98855     5.89528     2.03356
      29       2    29     -0.76     4.73093     5.34868     0.01739
      30       2    11      0.51      5.3766     2.69512           0
      31       2    28     -0.51     5.88667     1.57587           0
      32       3    25     -0.47     6.10914     3.82314           0
      33       3     1      0.31     5.70362     4.73394           0
      34       3    13      0.07     7.53718     3.74829           0
      35       3     4      0.09     7.85175     3.25015     0.90515
      36       3    13     -0.09     8.10778     3.04734    -1.19711
      37       3     8      0.09      7.8249     3.58681    -2.12624
      38       3    16     -0.27     9.64065     3.03714    -1.07199
      39       3    10      0.09     10.0899     2.48875    -1.92742
      40       3    10      0.09    10.03147     4.07708    -1.08206
      41       3    10      0.09     9.94358      2.5294    -0.13138
      42       3    16     -0.27     7.48503     1.64372    -1.28356
      43       3    10      0.09     7.91979     1.08521    -2.13993
      44       3    10      0.09     7.68416     1.07936    -0.34752
      45       3    10      0.09     6.38719     1.72178    -1.43516
      46       3    11      0.51     8.04679     5.14844           0
      47       3    28     -0.51     7.27272     6.10433           0
      48       4    25     -0.47     9.38314      5.3007           0
      49       4     1      0.31    10.01731     4.53139           0
      50       4    13      0.07     9.95335     6.61209           0
      51       4     4      0.09     9.64501     7.09044    -0.91788
      52       4    14     -0.18     9.57008     7.44655     1.23379
      53       4     9      0.09     8.46974     7.59649      1.2665
      54       4     9      0.09     9.85468     6.90757     2.16267
      55       4    12         0    10.22987     8.77562     1.09837
      56       4    12    -0.115     9.62312     9.83629     0.46793
      57       4     3     0.115     8.61931     9.73331     0.08302
      58       4    12    -0.115    10.29665    11.02613     0.32207
      59       4     3     0.115     9.81895    11.86021    -0.17039
      60       4    12    -0.115    11.57602    11.15608     0.80884
      61       4     3     0.115    12.10994    12.08845     0.69926
      62       4    12    -0.115    11.50332     9.01407     1.55892
      63       4     3     0.115    12.05199     8.23022     2.05985
      64       4    12    -0.115    12.08841    10.24203      1.3579
      65       4     3     0.115    13.09183    10.42658     1.71215
      66       4    11      0.51    11.43377     6.44342           0
      67       4    28     -0.51    11.94385     5.32417           0
      68       5    25     -0.47    12.16631     7.57143           0
      69       5     1      0.31     11.7608     8.48224           0
      70       5    13      0.07    13.59435     7.49659           0
      71       5     4      0.09    13.90507     6.99985     0.90725
      72       5    14     -0.18    14.15244     6.78769    -1.24557
      73       5     9      0.09    13.75598     5.75154    -1.30495
      74       5     9      0.09    13.77617     7.28176    -2.16679
      75       5    14     -0.14    15.67969     6.69788    -1.26349
      76       5     9      0.09    16.12244      7.7164    -1.23315
      77       5     9      0.09    16.04049     6.15012    -0.36676
      78       5    31     -0.09    16.36881     5.86438    -2.72483
      79       5    16     -0.22    18.10082      6.0531    -2.21262
      80       5    10      0.09    18.79368     5.61846    -2.96452
      81       5    10      0.09    18.37051     7.12366    -2.08815
      82       5    10      0.09    18.29347     5.54227    -1.24501
      83       5    11      0.51    14.10396     8.89673           0
      84       5    28     -0.51     13.3299     9.85262           0
      85       6    25     -0.47    15.44032     9.04899           0
      86       6     1      0.31    16.07449     8.27968           0
      87       6    13      0.07    16.01053    10.36039           0
      88       6     4      0.09    15.70444    10.85852    -0.90806
      89       6    14     -0.18    15.62663    11.18927     1.23734
      90       6     9      0.09    14.52247    11.29689     1.29725
      91       6     9      0.09    15.90225    10.64198     2.16407
      92       6    14     -0.18    16.23372    12.59366     1.24324
      93       6     9      0.09    17.34245    12.53046     1.21091
      94       6     9      0.09     15.9256    13.14665     0.33023
      95       6    14     -0.18    15.85326    13.42028     2.47322
      96       6     9      0.09    14.74823    13.50838     2.54714
      97       6     9      0.09    16.17592    12.89781     3.39909
      98       6    14      0.21    16.46036    14.82467     2.47912
      99       6     9      0.05    17.56941    14.76127      2.4619
     100       6     9      0.05     16.1186    15.39211     1.58719
     101       6    27      -0.3    16.04272    15.55155      3.6988
     102       6     2      0.33     16.4605    16.50393     3.69553
     103       6     2      0.33    15.00553    15.62448     3.72144
     104       6     2      0.33    16.36609    15.03258     4.54006
     105       6    11      0.51    17.49095    10.19171           0
     106       6    28     -0.51    18.00102     9.07246           0
     107       7    25     -0.47    18.22349    11.31973           0
     108       7     1      0.31    17.81797    12.23053           0
     109       7    14     -0.02    19.65153    11.24488           0
     110       7     5      0.09    19.97529     10.7434    -0.90005
     111       7     5      0.09    19.97912      10.742     0.89788
     112       7    11      0.51    20.16114    12.64503           0
     113       7    28     -0.51    19.38708    13.60092           0
     114       8    25     -0.47     21.4975    12.79729           0
     115       8     1      0.31    22.13167    12.02798           0
     116       8    13      0.07    22.06771    14.10868           0
     117       8     4      0.09    21.76094    14.60083    -0.91109
     118       8    14     -0.18    21.68206    14.92227     1.24691
     119       8     9      0.09    20.57744    15.02248     1.31082
     120       8     9      0.09    21.95909    14.36491      2.1672
     121       8    13     -0.09     22.2853    16.33689      1.2669
     122       8     8      0.09    21.87934    16.78956     0.33706
     123       8    16     -0.27    21.90687    17.16083     2.50923
     124       8    10      0.09    22.41372    18.14907     2.48087
     125       8    10      0.09    20.80815    17.32265      2.5399
     126       8    10      0.09    22.21943    16.62626     3.43165
     127       8    16     -0.27    23.82285    16.36175     1.23925
     128       8    10      0.09    24.18776    17.41111     1.23665
     129       8    10      0.09    24.22922    15.84746      2.1363
     130       8    10      0.09    24.19647    15.85593     0.32335
     131       8    11      0.51    23.54813    13.94001           0
     132       8    28     -0.51     24.0582    12.82076           0
     133       9    25     -0.47    24.28067    15.06802           0
     134       9     1      0.31    23.87515    15.97883           0
     135       9    13      0.07    25.70871    14.99318           0
     136       9     4      0.09    25.99816    14.50418     0.91842
     137       9    14      0.05    26.32962    14.26142    -1.20184
     138       9     9      0.09    25.97575    13.20872    -1.23231
     139       9     9      0.09    25.99179    14.73052     -2.1506
     140       9    30     -0.66    27.74515    14.25253    -1.08961
     141       9     1      0.43    28.05709    13.60604    -1.72707
     142       9    11      0.51    26.21832    16.39332           0
     143       9    28     -0.51    25.44425    17.34921           0
     144      10    25     -0.47    27.55467    16.54558           0
     145      10     1      0.31    28.18884    15.77627           0
     146      10    13      0.07    28.12488    17.85698           0
     147      10     4      0.09     27.8188    18.35511    -0.90806
     148      10    14     -0.18    27.74098    18.68586     1.23734
     149      10     9      0.09    26.63683    18.79348     1.29725
     150      10     9      0.09    28.01661    18.13857     2.16407
     151      10    14     -0.18    28.34808    20.09025     1.24324
     152      10     9      0.09    29.45681    20.02705     1.21091
     153      10     9      0.09    28.03995    20.64324     0.33023
     154      10    14     -0.18    27.96762    20.91687     2.47322
     155      10     9      0.09    26.86258    21.00497     2.54714
     156      10     9      0.09    28.29028     20.3944     3.39909
     157      10    14      0.21    28.57471    22.32126     2.47912
     158      10     9      0.05    29.68377    22.25786      2.4619
     159      10     9      0.05    28.23295     22.8887     1.58719
     160      10    27      -0.3    28.15707    23.04813      3.6988
     161      10     2      0.33    28.57486    24.00052     3.69553
     162      10     2      0.33    27.11988    23.12107     3.72144
     163      10     2      0.33    28.48044    22.52917     4.54006
     164      10    11      0.51    29.60531     17.6883           0
     165      10    28     -0.51    30.11538    16.56905           0
     166      11    25     -0.47    30.33785    18.81632           0
     167      11     1      0.31    29.93233    19.72712           0
     168      11    13      0.07    31.76589    18.74147           0
     169      11     4      0.09     32.1274    18.22624     0.87763
     170      11    16     -0.27    32.35657    18.02071    -1.22354
     171      11    10      0.09    32.03773    16.95647    -1.23047
     172      11    10      0.09    31.99307    18.49664    -2.15932
     173      11    10      0.09    33.46645    18.05591    -1.18839
     174      11    11      0.51     32.2755    20.14162           0
     175      11    28     -0.51    31.50143    21.09751           0
     176      12    25     -0.47    33.61185    20.29388           0
     177      12     1      0.31    34.24602    19.52457           0
     178      12    13      0.07    34.18206    21.60527           0
     179      12     4      0.09    33.87597    22.10341    -0.90806
     180      12    14     -0.18    33.79816    22.43416     1.23734
     181      12     9      0.09    32.69401    22.54177     1.29725
     182      12     9      0.09    34.07379    21.88687     2.16407
     183      12    14     -0.18    34.40525    23.83854     1.24324
     184      12     9      0.09    35.51398    23.77535     1.21091
     185      12     9      0.09    34.09713    24.39153     0.33023
     186      12    14     -0.18    34.02479    24.66516     2.47322
     187      12     9      0.09    32.91976    24.75326     2.54714
     188      12     9      0.09    34.34745     24.1427     3.39909
     189      12    14      0.21    34.63189    26.06955     2.47912
     190      12     9      0.05    35.74094    26.00615      2.4619
     191      12     9      0.05    34.29013    26.63699     1.58719
     192      12    27      -0.3    34.21425    26.79643      3.6988
     193      12     2      0.33    34.63204    27.74882     3.69553
     194      12     2      0.33    33.17706    26.86936     3.72144
     195      12     2      0.33    34.53762    26.27747     4.54006
     196      12    11      0.51    35.66248     21.4366           0
     197      12    28     -0.51    36.17256    20.31735           0
     198      13    25     -0.47    36.39502    22.56461           0
     199      13     1      0.31    35.98951    23.47541           0
     200      13    13      0.07    37.82306    22.48977           0
     201      13     4      0.09    38.14977    21.98721     0.89839
     202      13    15     -0.18    38.38686     21.7788    -1.24181
     203      13     9      0.09    37.98334    20.74568     -1.3064
     204      13     9      0.09    38.02945    22.28248    -2.16533
     205      13    14     -0.28    39.91434    21.69195     -1.2542
     206      13     9      0.09    40.35453    22.71165    -1.28174
     207      13     9      0.09    40.27387    21.15982    -0.34761
     208      13    22      0.62    40.33414    20.97132    -2.52736
     209      13    29     -0.76    41.56544    20.79599    -2.72927
     210      13    29     -0.76     39.4301    20.60181    -3.32345
     211      13    11      0.51    38.33267    23.88991           0
     212      13    28     -0.51    37.55861     24.8458           0
     213      14    25     -0.47    39.66903    24.04217           0
     214      14     1      0.31     40.3032    23.27286           0
     215      14    14     -0.02    40.23924    25.35357           0
     216      14     5      0.09     39.9349    25.86707     0.90005
     217      14     5      0.09    39.93536    25.87112    -0.89788
     218      14    11      0.51    41.71966    25.18489           0
     219      14    28     -0.51    42.22973    24.06564           0
     220      15    25     -0.47     42.4522    26.31291           0
     221      15     1      0.31    42.04668    27.22371           0
     222      15    13      0.07    43.88024    26.23806           0
     223      15     4      0.09    44.19482    25.73992     0.90515
     224      15    13     -0.09    44.45084    25.53711    -1.19711
     225      15     8      0.09    44.16796    26.07658    -2.12624
     226      15    16     -0.27    45.98371    25.52691    -1.07199
     227      15    10      0.09    46.43297    24.97852    -1.92742
     228      15    10      0.09    46.37453    26.56685    -1.08206
     229      15    10      0.09    46.28664    25.01917    -0.13138
     230      15    16     -0.27    43.82809    24.13349    -1.28356
     231      15    10      0.09    44.26286    23.57498    -2.13993
     232      15    10      0.09    44.02722    23.56913    -0.34752
     233      15    10      0.09    42.73025    24.21155    -1.43516
     234      15    11      0.51    44.38985    27.63821           0
     235      15    28     -0.51    43.61579     28.5941           0
     236      16    25     -0.47     45.7262    27.79046           0
     237      16     1      0.31    46.36037    27.02116           0
     238      16    13      0.07    46.29642    29.10186           0
     239      16     4      0.09    45.99097    29.60566    -0.90515
     240      16    13     -0.09    45.92371    29.92527     1.19711
     241      16     8      0.09    46.28028    29.43141     2.12624
     242      16    16     -0.27    46.59854    31.30164     1.07199
     243      16    10      0.09    46.30822    31.94839     1.92742
     244      16    10      0.09    47.70361    31.18738     1.08206
     245      16    10      0.09    46.27931     31.7993     0.13138
     246      16    16     -0.27    44.38969    29.99425     1.28356
     247      16    10      0.09    44.08385    30.63254     2.13993
     248      16    10      0.09    43.97348    30.42428     0.34752
     249      16    10      0.09    43.96969    28.97692     1.43516
     250      16    11      0.51    47.77684    28.93319           0
     251      16    28     -0.51    48.28691    27.81394           0
     252      17    25     -0.47    48.50938     30.0612           0
     253      17     1      0.31    48.10386      30.972           0
     254      17    13      0.07    49.93742    29.98636           0
     255      17     4      0.09    50.29894    29.47113     0.87763
     256      17    16     -0.27     50.5281     29.2656    -1.22354
     257      17    10      0.09    50.20926    28.20135    -1.23047
     258      17    10      0.09     50.1646    29.74153    -2.15932
     259      17    10      0.09    51.63799    29.30079    -1.18839
     260      17    11      0.51    50.44703     31.3865           0
     261      17    28     -0.51    49.67296    32.34239           0
     262      18    25     -0.47    51.78338    31.53876           0
     263      18     1      0.31    52.41755    30.76945           0
     264      18    13      0.07    52.35359    32.85016           0
     265      18     4      0.09     52.0538    33.40359    -0.87763
     266      18    16     -0.27    51.97212    33.70038     1.22354
     267      18    10      0.09    50.87743    33.88991     1.23047
     268      18    10      0.09    52.23585    33.16272     2.15932
     269      18    10      0.09    52.49885    34.67795     1.18839
     270      18    11      0.51    53.83401    32.68148           0
     271      18    28     -0.51    54.34409    31.56223           0
     272      19    25     -0.47    54.56655    33.80949           0
     273      19     1      0.31    54.16104     34.7203           0
     274      19    13      0.07    55.99459    33.73465           0
     275      19     4      0.09    56.35611    33.21942     0.87763
     276      19    16     -0.27    56.58528    33.01389    -1.22354
     277      19    10      0.09    56.26644    31.94965    -1.23047
     278      19    10      0.09    56.22178    33.48982    -2.15932
     279      19    10      0.09    57.69516    33.04909    -1.18839
     280      19    11      0.51     56.5042     35.1348           0
     281      19    28     -0.51    55.73014    36.09069           0
     282      20    25     -0.47    57.84056    35.28705           0
     283      20     1      0.31    58.47473    34.51775           0
     284      20    13      0.07    58.41077    36.59845           0
     285      20     4      0.09    58.10679    37.11507    -0.89839
     286      20    15     -0.18    58.02606    37.42024     1.24181
     287      20     9      0.09    56.92144    37.52009      1.3064
     288      20     9      0.09    58.31735    36.87564     2.16533
     289      20    14     -0.28    58.62989    38.82599      1.2542
     290      20     9      0.09    59.73887    38.76494     1.28174
     291      20     9      0.09     58.3141    39.38518     0.34761
     292      20    22      0.62    58.17229    39.52323     2.52736
     293      20    29     -0.76    58.56479    40.70339     2.72927
     294      20    29     -0.76    57.43822    38.87905     3.32345
     295      20    11      0.51    59.89119    36.42978           0
     296      20    28     -0.51    60.40126    35.31053           0
     297      21    25     -0.47    60.62373    37.55779           0
     298      21     1      0.31    60.21821    38.46859           0
     299      21    13      0.07    62.05177    37.48295           0
     300      21     4      0.09      62.361    36.98675     0.90806
     301      21    14     -0.18    62.62227    36.76953    -1.23734
     302      21     9      0.09    62.22591    35.73337    -1.29725
     303      21     9      0.09    62.25547     37.2604    -2.16407
     304      21    14     -0.18    64.14999    36.68621    -1.24324
     305      21     9      0.09    64.58815    37.70665    -1.21091
     306      21     9      0.09     64.5074    36.16372    -0.33023
     307      21    14     -0.18       64.72    35.97689    -2.47322
     308      21     9      0.09    64.30578    34.94865    -2.54714
     309      21     9      0.09     64.3964    36.49877    -3.39909
     310      21    14      0.21    66.24772    35.89356    -2.47912
     311      21     9      0.05    66.68584    36.91438     -2.4619
     312      21     9      0.05    66.60305    35.33452    -1.58719
     313      21    27      -0.3    66.71188    35.19547     -3.6988
     314      21     2      0.33    67.75062    35.14441    -3.69553
     315      21     2      0.33    66.31436    34.23471    -3.72144
     316      21     2      0.33    66.39173    35.71643    -4.54006
     317      21    11      0.51    62.56138    38.88309           0
     318      21    28     -0.51    61.78732    39.83898           0
     319      22    25     -0.47    63.89774    39.03535           0
     320      22     1      0.31    64.53191    38.26604           0
     321      22    13      0.07    64.46795    40.34675           0
     322      22     4      0.09    64.15831    40.81376    -0.92327
     323      22    13      0.14    64.10337    41.24153     1.14736
     324      22     8      0.09    63.01249    41.45171     1.13597
     325      22    30     -0.66    64.74362    42.50115     1.00646
     326      22     1      0.43    64.48097    43.01851     1.77127
     327      22    16     -0.27    64.46748    40.52592     2.45914
     328      22    10      0.09    64.10475    41.11471     3.32867
     329      22    10      0.09    63.99193    39.52236     2.49132
     330      22    10      0.09    65.56927    40.40498     2.53499
     331      22    11      0.51    65.94837    40.17807           0
     332      22    28     -0.51    66.45844    39.05882           0
     333      23    25     -0.47    66.68091    41.30608           0
     334      23     1      0.31    66.27539    42.21689           0
     335      23    13      0.07    68.10895    41.23124           0
     336      23     4      0.09    68.41817    40.73505     0.90806
     337      23    14     -0.18    68.67945    40.51783    -1.23734
     338      23     9      0.09    68.28309    39.48167    -1.29725
     339      23     9      0.09    68.31265     41.0087    -2.16407
     340      23    14     -0.18    70.20717     40.4345    -1.24324
     341      23     9      0.09    70.64533    41.45494    -1.21091
     342      23     9      0.09    70.56457    39.91201    -0.33023
     343      23    14     -0.18    70.77718    39.72518    -2.47322
     344      23     9      0.09    70.36296    38.69694    -2.54714
     345      23     9      0.09    70.45358    40.24706    -3.39909
     346      23    14      0.21     72.3049    39.64186    -2.47912
     347      23     9      0.05    72.74302    40.66268     -2.4619
     348      23     9      0.05    72.66023    39.08282    -1.58719
     349      23    27      -0.3    72.76906    38.94377     -3.6988
     350      23     2      0.33     73.8078     38.8927    -3.69553
     351      23     2      0.33    72.37153    37.98301    -3.72144
     352      23     2      0.33    72.44891    39.46472    -4.54006
     353      23    11      0.51    68.61856    42.63139           0
     354      23    28     -0.51    67.84449    43.58728           0
     355      24    25     -0.47    69.95491    42.78364           0
     356      24     1      0.31    70.58908    42.01433           0
     357      24    13      0.07    70.52512    44.09504           0
     358      24     4      0.09    70.21893    44.59223    -0.90854
     359      24    14     -0.18    70.14044    44.91705     1.24168
     360      24     9      0.09    69.03607    45.02142     1.30336
     361      24     9      0.09    70.41647     44.3651     2.16552
     362      24    14     -0.18    70.74437    46.32276     1.25387
     363      24     9      0.09    71.85369    46.26169      1.2576
     364      24     9      0.09    70.42791    46.88214     0.34763
     365      24    22      0.55    70.28678    47.02022     2.52691
     366      24    28     -0.55     70.6369    48.17206     2.77908
     367      24    26     -0.62    69.47297    46.30697     3.35066
     368      24     1      0.32    69.13782    46.71614     4.19934
     369      24     1       0.3    69.22289    45.36766     3.11578
     370      24    11      0.51    72.00555    43.92637           0
     371      24    28     -0.51    72.51562    42.80712           0
     372      25    25     -0.47    72.73809    45.05438           0
     373      25     1      0.31    72.33257    45.96518           0
     374      25    14     -0.02    74.16613    44.97954           0
     375      25     5      0.09    74.48988    44.47805    -0.90005
     376      25     5      0.09    74.49371    44.47666     0.89788
     377      25    11      0.51    74.67574    46.37968           0
     378      25    28     -0.51    73.90167    47.33557           0
     379      26    25     -0.47    76.01209    46.53194           0
     380      26     1      0.31    76.64626    45.76263           0
     381      26    13      0.07     76.5823    47.84334           0
     382      26     4      0.09    76.27686    48.34713    -0.90515
     383      26    13     -0.09    76.20959    48.66675     1.19711
     384      26     8      0.09    76.56617    48.17288     2.12624
     385      26    16     -0.27    76.88443    50.04312     1.07199
     386      26    10      0.09    76.59411    50.68987     1.92742
     387      26    10      0.09    77.98949    49.92886     1.08206
     388      26    10      0.09     76.5652    50.54077     0.13138
     389      26    16     -0.27    74.67557    48.73572     1.28356
     390      26    10      0.09    74.36974    49.37402     2.13993
     391      26    10      0.09    74.25936    49.16575     0.34752
     392      26    10      0.09    74.25558     47.7184     1.43516
     393      26    11      0.51    78.06272    47.67466           0
     394      26    28     -0.51     78.5728    46.55541           0
     395      27    25     -0.47    78.79526    48.80267           0