Created by charmm2lammps v1.8.1 on Thu Apr 10 17:20:02 CDT 2014

          22  atoms
          21  bonds
          36  angles
          43  dihedrals
           4  impropers

           8  atom types
          10  bond types
          20  angle types
          28  dihedral types
           4  improper types

    -20.0      20.0 xlo xhi
    -20.0      20.0 ylo yhi
    -20.0      20.0 zlo zhi

Masses

       1      1.008
       2      1.008
       3      1.008
       4     12.011
       5     12.011
       6     12.011
       7     14.007
       8     15.999

Pair Coeffs

       1      0.046  0.4000135      0.046  0.4000135
       2      0.022   2.351973      0.022   2.351973
       3      0.022   2.351973      0.022   2.351973
       4       0.11   3.563595       0.11   3.563595
       5       0.02   4.053589       0.01   3.385415
       6       0.08   3.670503       0.01   3.385415
       7        0.2   3.296325        0.2   2.761786
       8       0.12   3.029056       0.12   2.494516

Atoms

       1       1     6     -0.27     1.39688     3.74026     1.16464
       2       1     2      0.09     0.78288     4.55132     0.72681
       3       1     2      0.09     2.44314     3.83489     0.79758
       4       1     2      0.09     1.40904     3.83649     2.27162
       5       1     4      0.51     0.87521     2.40471     0.79926
       6       1     8     -0.51     1.44049     1.39936      1.1859
       7       1     7     -0.47    -0.21855      2.3739     0.01102
       8       1     1      0.31    -0.65215     3.22915    -0.22985
       9       1     5      0.07    -0.80314     1.16318    -0.55794
      10       1     3      0.09    -1.05119      0.4881     0.25205
      11       1     6     -0.27     -2.0676     1.54352    -1.37125
      12       1     2      0.09    -2.25127     2.63644    -1.31708
      13       1     2      0.09    -1.99114     1.26116    -2.44292
      14       1     2      0.09    -2.95433     1.02281    -0.95249
      15       1     4      0.51     0.21045     0.44341    -1.44477
      16       1     8     -0.51     0.59618    -0.69576    -1.22108
      17       1     7     -0.47     0.70299     1.20092    -2.44129
      18       1     1      0.31     0.16208      1.9601    -2.76925
      19       1     6     -0.11      2.1197       1.224    -2.71601
      20       1     2      0.09     2.55903     2.09799    -2.18231
      21       1     2      0.09     2.31642     1.33855    -3.80228
      22       1     2      0.09     2.63791     0.31149    -2.34135

Bond Coeffs

       1        250       1.49
       2        250       1.49
       3        370      1.345
       4        620       1.23
       5      222.5      1.538
       6        330       1.08
       7        320       1.43
       8        322      1.111
       9        320       1.43
      10        440      0.997

Bonds

       1       2       5       1
       2       3       5       7
       3       8       1       2
       4       8       1       3
       5       8       1       4
       6       4       6       5
       7       5      11       9
       8      10       7       8
       9       7       7       9
      10       1      15       9
      11       6       9      10
      12       8      11      12
      13       8      11      13
      14       8      11      14
      15       4      16      15
      16       3      15      17
      17      10      17      18
      18       9      17      19
      19       8      19      20
      20       8      19      21
      21       8      19      22

Angle Coeffs

       1         52        108          0          0
       2         50      109.5          0          0
       3         50        107          0          0
       4         33      109.5         30      2.163
       5         50        120          0          0
       6         50        120          0          0
       7         34        123          0          0
       8         80      116.5          0          0
       9         80        121          0          0
      10      33.43      110.1      22.53      2.179
      11         35        117          0          0
      12         80      116.5          0          0
      13         80        121          0          0
      14         35        111          0          0
      15         70      113.5          0          0
      16         35        117          0          0
      17       35.5      108.4        5.4      1.802
      18       51.5      109.5          0          0
      19         48        108          0          0
      20         80      122.5          0          0

Angles

       1      17       2       1       3
       2      17       2       1       4
       3       4       2       1       5
       4      17       3       1       4
       5       4       3       1       5
       6       4       4       1       5
       7      13       1       5       6
       8      12       1       5       7
       9      20       6       5       7
      10       7       5       7       8
      11       5       5       7       9
      12      11       8       7       9
      13      19       7       9      10
      14      15       7       9      11
      15       3       7       9      15
      16      14      10       9      11
      17       2      10       9      15
      18       1      11       9      15
      19      10       9      11      12
      20      10       9      11      13
      21      10       9      11      14
      22      17      12      11      13
      23      17      12      11      14
      24      17      13      11      14
      25       9       9      15      16
      26       8       9      15      17
      27      20      16      15      17
      28       7      15      17      18
      29       6      15      17      19
      30      16      18      17      19
      31      18      17      19      20
      32      18      17      19      21
      33      18      17      19      22
      34      17      20      19      21
      35      17      20      19      22
      36      17      21      19      22

Dihedral Coeffs

       1        0.2          3          0          1
       2        0.2          1        180          1
       3          0          1          0          1
       4        1.8          1          0          1
       5          0          1          0          1
       6          0          3          0          1
       7        1.6          1          0          1
       8        2.5          2        180          0
       9        2.5          2        180          1
      10        1.6          1          0          1
      11        2.5          2        180          0
      12        2.5          2        180          1
      13        2.5          2        180          1
      14          0          1          0          1
      15        1.4          1          0          1
      16          0          1          0          1
      17        2.5          2        180          1
      18        2.5          2        180          1
      19          0          1          0          1
      20          0          3          0          1
      21          0          3          0          1
      22          0          3        180          1
      23        0.2          3          0          1
      24        0.2          3          0          1
      25          0          1          0          1
      26          0          1          0          1
      27        0.6          1          0          1
      28          0          1          0          1

Dihedrals

       1      13       1       5       7       8
       2      10       1       5       7       9
       3      11       1       5       7       9
       4      22       2       1       5       6
       5      21       2       1       5       7
       6      22       3       1       5       6
       7      21       3       1       5       7
       8      22       4       1       5       6
       9      21       4       1       5       7
      10       5       5       7       9      10
      11       4       5       7       9      11
      12       2       5       7       9      15
      13      18       6       5       7       8
      14      12       6       5       7       9
      15      24       7       9      11      12
      16      24       7       9      11      13
      17      24       7       9      11      14
      18      28       7       9      15      16
      19      27       7       9      15      17
      20      19       8       7       9      10
      21      16       8       7       9      11
      22       3       8       7       9      15
      23       9       9      15      17      18
      24       7       9      15      17      19
      25       8       9      15      17      19
      26      23      10       9      11      12
      27      23      10       9      11      13
      28      23      10       9      11      14
      29      26      10       9      15      16
      30      25      10       9      15      17
      31      15      11       9      15      16
      32      14      11       9      15      17
      33       1      12      11       9      15
      34       1      13      11       9      15
      35       1      14      11       9      15
      36       6      15      17      19      20
      37       6      15      17      19      21
      38       6      15      17      19      22
      39      18      16      15      17      18
      40      17      16      15      17      19
      41      20      18      17      19      20
      42      20      18      17      19      21
      43      20      18      17      19      22

Improper Coeffs

       1        120          0
       2        120          0
       3         20          0
       4         20          0

Impropers

       1       2       5       1       7       6
       2       3       7       5       9       8
       3       4      17      15      19      18
       4       1      15       9      17      16

